t 0.0137794 /NodeList/1/DeviceList/1/$ns3::WifiNetDevice/Phy/State/Tx OfdmRate6Mbps ns3::WifiMacHeader (MGT_BEACON ToDS=0, FromDS=0, MoreFrag=0, Retry=0, PowerManagement=0, MoreData=0 Duration/ID=0us, DA=ff:ff:ff:ff:ff:ff, SA=00:00:00:00:00:02, BSSID=00:00:00:00:00:02, FragNumber=0, SeqNumber=0) ns3::MgtProbeResponseHeader (ssid= , rates=[6mbs 9mbs 12mbs 18mbs 24mbs 36mbs 48mbs 54mbs] , ) ns3::MeshInformationElementVector ((BeaconTiming=(Number of units=0))(MeshId=(meshId=mesh))) 
r 0.0138835 OfdmRate6Mbps /NodeList/0/DeviceList/1/$ns3::WifiNetDevice/Phy/State/RxOk ns3::WifiMacHeader (MGT_BEACON ToDS=0, FromDS=0, MoreFrag=0, Retry=0, PowerManagement=0, MoreData=0 Duration/ID=0us, DA=ff:ff:ff:ff:ff:ff, SA=00:00:00:00:00:02, BSSID=00:00:00:00:00:02, FragNumber=0, SeqNumber=0) ns3::MgtProbeResponseHeader (ssid= , rates=[6mbs 9mbs 12mbs 18mbs 24mbs 36mbs 48mbs 54mbs] , ) ns3::MeshInformationElementVector ((BeaconTiming=(Number of units=0))(MeshId=(meshId=mesh))) 
r 0.0138835 OfdmRate6Mbps /NodeList/2/DeviceList/1/$ns3::WifiNetDevice/Phy/State/RxOk ns3::WifiMacHeader (MGT_BEACON ToDS=0, FromDS=0, MoreFrag=0, Retry=0, PowerManagement=0, MoreData=0 Duration/ID=0us, DA=ff:ff:ff:ff:ff:ff, SA=00:00:00:00:00:02, BSSID=00:00:00:00:00:02, FragNumber=0, SeqNumber=0) ns3::MgtProbeResponseHeader (ssid= , rates=[6mbs 9mbs 12mbs 18mbs 24mbs 36mbs 48mbs 54mbs] , ) ns3::MeshInformationElementVector ((BeaconTiming=(Number of units=0))(MeshId=(meshId=mesh))) 
r 0.0138835 OfdmRate6Mbps /NodeList/4/DeviceList/1/$ns3::WifiNetDevice/Phy/State/RxOk ns3::WifiMacHeader (MGT_BEACON ToDS=0, FromDS=0, MoreFrag=0, Retry=0, PowerManagement=0, MoreData=0 Duration/ID=0us, DA=ff:ff:ff:ff:ff:ff, SA=00:00:00:00:00:02, BSSID=00:00:00:00:00:02, FragNumber=0, SeqNumber=0) ns3::MgtProbeResponseHeader (ssid= , rates=[6mbs 9mbs 12mbs 18mbs 24mbs 36mbs 48mbs 54mbs] , ) ns3::MeshInformationElementVector ((BeaconTiming=(Number of units=0))(MeshId=(meshId=mesh))) 
t 0.0139175 /NodeList/0/DeviceList/1/$ns3::WifiNetDevice/Phy/State/Tx OfdmRate6Mbps ns3::WifiMacHeader (MGT_ACTION ToDS=0, FromDS=0, MoreFrag=0, Retry=0, PowerManagement=0, MoreData=0 Duration/ID=1972us, DA=00:00:00:00:00:02, SA=00:00:00:00:00:01, BSSID=00:00:00:00:00:01, FragNumber=0, SeqNumber=0) ns3::WifiActionHeader (SELF_PROTECTED[PEER_LINK_OPEN]) ns3::dot11s::PeerLinkOpenStart (capability=0, rates=rates=[6mbs 9mbs 12mbs 18mbs 24mbs 36mbs 48mbs 54mbs], MeshId=(meshId=mesh), MeshConfiguration=(neighbors=0, Active Path Selection Protocol ID=1, Active Path Selection Metric ID=1, Congestion Control Mode ID=0, Synchronize protocol ID=1, Authentication protocol ID=0, Capabilities=9)) ns3::MeshInformationElementVector ((PeerMgmt=(Subtype=1, Length=3, LocalLinkId=1, PeerLinkId=0, ReasonCode=67))) 
t 0.0139175 /NodeList/2/DeviceList/1/$ns3::WifiNetDevice/Phy/State/Tx OfdmRate6Mbps ns3::WifiMacHeader (MGT_ACTION ToDS=0, FromDS=0, MoreFrag=0, Retry=0, PowerManagement=0, MoreData=0 Duration/ID=1972us, DA=00:00:00:00:00:02, SA=00:00:00:00:00:03, BSSID=00:00:00:00:00:03, FragNumber=0, SeqNumber=0) ns3::WifiActionHeader (SELF_PROTECTED[PEER_LINK_OPEN]) ns3::dot11s::PeerLinkOpenStart (capability=0, rates=rates=[6mbs 9mbs 12mbs 18mbs 24mbs 36mbs 48mbs 54mbs], MeshId=(meshId=mesh), MeshConfiguration=(neighbors=0, Active Path Selection Protocol ID=1, Active Path Selection Metric ID=1, Congestion Control Mode ID=0, Synchronize protocol ID=1, Authentication protocol ID=0, Capabilities=9)) ns3::MeshInformationElementVector ((PeerMgmt=(Subtype=1, Length=3, LocalLinkId=1, PeerLinkId=0, ReasonCode=67))) 
t 0.0139175 /NodeList/4/DeviceList/1/$ns3::WifiNetDevice/Phy/State/Tx OfdmRate6Mbps ns3::WifiMacHeader (MGT_ACTION ToDS=0, FromDS=0, MoreFrag=0, Retry=0, PowerManagement=0, MoreData=0 Duration/ID=1972us, DA=00:00:00:00:00:02, SA=00:00:00:00:00:05, BSSID=00:00:00:00:00:05, FragNumber=0, SeqNumber=0) ns3::WifiActionHeader (SELF_PROTECTED[PEER_LINK_OPEN]) ns3::dot11s::PeerLinkOpenStart (capability=0, rates=rates=[6mbs 9mbs 12mbs 18mbs 24mbs 36mbs 48mbs 54mbs], MeshId=(meshId=mesh), MeshConfiguration=(neighbors=0, Active Path Selection Protocol ID=1, Active Path Selection Metric ID=1, Congestion Control Mode ID=0, Synchronize protocol ID=1, Authentication protocol ID=0, Capabilities=9)) ns3::MeshInformationElementVector ((PeerMgmt=(Subtype=1, Length=3, LocalLinkId=1, PeerLinkId=0, ReasonCode=67))) 
t 0.0141405 /NodeList/4/DeviceList/1/$ns3::WifiNetDevice/Phy/State/Tx OfdmRate6Mbps ns3::WifiMacHeader (MGT_ACTION ToDS=0, FromDS=0, MoreFrag=0, Retry=1, PowerManagement=0, MoreData=0 Duration/ID=1972us, DA=00:00:00:00:00:02, SA=00:00:00:00:00:05, BSSID=00:00:00:00:00:05, FragNumber=0, SeqNumber=0) ns3::WifiActionHeader (SELF_PROTECTED[PEER_LINK_OPEN]) ns3::dot11s::PeerLinkOpenStart (capability=0, rates=rates=[6mbs 9mbs 12mbs 18mbs 24mbs 36mbs 48mbs 54mbs], MeshId=(meshId=mesh), MeshConfiguration=(neighbors=0, Active Path Selection Protocol ID=1, Active Path Selection Metric ID=1, Congestion Control Mode ID=0, Synchronize protocol ID=1, Authentication protocol ID=0, Capabilities=9)) ns3::MeshInformationElementVector ((PeerMgmt=(Subtype=1, Length=3, LocalLinkId=1, PeerLinkId=0, ReasonCode=67))) 
t 0.0141585 /NodeList/0/DeviceList/1/$ns3::WifiNetDevice/Phy/State/Tx OfdmRate6Mbps ns3::WifiMacHeader (MGT_ACTION ToDS=0, FromDS=0, MoreFrag=0, Retry=1, PowerManagement=0, MoreData=0 Duration/ID=1972us, DA=00:00:00:00:00:02, SA=00:00:00:00:00:01, BSSID=00:00:00:00:00:01, FragNumber=0, SeqNumber=0) ns3::WifiActionHeader (SELF_PROTECTED[PEER_LINK_OPEN]) ns3::dot11s::PeerLinkOpenStart (capability=0, rates=rates=[6mbs 9mbs 12mbs 18mbs 24mbs 36mbs 48mbs 54mbs], MeshId=(meshId=mesh), MeshConfiguration=(neighbors=0, Active Path Selection Protocol ID=1, Active Path Selection Metric ID=1, Congestion Control Mode ID=0, Synchronize protocol ID=1, Authentication protocol ID=0, Capabilities=9)) ns3::MeshInformationElementVector ((PeerMgmt=(Subtype=1, Length=3, LocalLinkId=1, PeerLinkId=0, ReasonCode=67))) 
t 0.0141585 /NodeList/2/DeviceList/1/$ns3::WifiNetDevice/Phy/State/Tx OfdmRate6Mbps ns3::WifiMacHeader (MGT_ACTION ToDS=0, FromDS=0, MoreFrag=0, Retry=1, PowerManagement=0, MoreData=0 Duration/ID=1972us, DA=00:00:00:00:00:02, SA=00:00:00:00:00:03, BSSID=00:00:00:00:00:03, FragNumber=0, SeqNumber=0) ns3::WifiActionHeader (SELF_PROTECTED[PEER_LINK_OPEN]) ns3::dot11s::PeerLinkOpenStart (capability=0, rates=rates=[6mbs 9mbs 12mbs 18mbs 24mbs 36mbs 48mbs 54mbs], MeshId=(meshId=mesh), MeshConfiguration=(neighbors=0, Active Path Selection Protocol ID=1, Active Path Selection Metric ID=1, Congestion Control Mode ID=0, Synchronize protocol ID=1, Authentication protocol ID=0, Capabilities=9)) ns3::MeshInformationElementVector ((PeerMgmt=(Subtype=1, Length=3, LocalLinkId=1, PeerLinkId=0, ReasonCode=67))) 
r 0.0142487 OfdmRate6Mbps /NodeList/3/DeviceList/1/$ns3::WifiNetDevice/Phy/State/RxOk ns3::WifiMacHeader (MGT_ACTION ToDS=0, FromDS=0, MoreFrag=0, Retry=1, PowerManagement=0, MoreData=0 Duration/ID=1972us, DA=00:00:00:00:00:02, SA=00:00:00:00:00:05, BSSID=00:00:00:00:00:05, FragNumber=0, SeqNumber=0) ns3::WifiActionHeader (SELF_PROTECTED[PEER_LINK_OPEN]) ns3::dot11s::PeerLinkOpenStart (capability=0, rates=rates=[6mbs 9mbs 12mbs 18mbs 24mbs 36mbs 48mbs 54mbs], MeshId=(meshId=mesh), MeshConfiguration=(neighbors=0, Active Path Selection Protocol ID=1, Active Path Selection Metric ID=1, Congestion Control Mode ID=0, Synchronize protocol ID=1, Authentication protocol ID=0, Capabilities=9)) ns3::MeshInformationElementVector ((PeerMgmt=(Subtype=1, Length=3, LocalLinkId=1, PeerLinkId=0, ReasonCode=67))) 
r 0.0142487 OfdmRate6Mbps /NodeList/5/DeviceList/1/$ns3::WifiNetDevice/Phy/State/RxOk ns3::WifiMacHeader (MGT_ACTION ToDS=0, FromDS=0, MoreFrag=0, Retry=1, PowerManagement=0, MoreData=0 Duration/ID=1972us, DA=00:00:00:00:00:02, SA=00:00:00:00:00:05, BSSID=00:00:00:00:00:05, FragNumber=0, SeqNumber=0) ns3::WifiActionHeader (SELF_PROTECTED[PEER_LINK_OPEN]) ns3::dot11s::PeerLinkOpenStart (capability=0, rates=rates=[6mbs 9mbs 12mbs 18mbs 24mbs 36mbs 48mbs 54mbs], MeshId=(meshId=mesh), MeshConfiguration=(neighbors=0, Active Path Selection Protocol ID=1, Active Path Selection Metric ID=1, Congestion Control Mode ID=0, Synchronize protocol ID=1, Authentication protocol ID=0, Capabilities=9)) ns3::MeshInformationElementVector ((PeerMgmt=(Subtype=1, Length=3, LocalLinkId=1, PeerLinkId=0, ReasonCode=67))) 
t 0.0143275 /NodeList/4/DeviceList/1/$ns3::WifiNetDevice/Phy/State/Tx OfdmRate6Mbps ns3::WifiMacHeader (MGT_ACTION ToDS=0, FromDS=0, MoreFrag=0, Retry=1, PowerManagement=0, MoreData=0 Duration/ID=1972us, DA=00:00:00:00:00:02, SA=00:00:00:00:00:05, BSSID=00:00:00:00:00:05, FragNumber=0, SeqNumber=0) ns3::WifiActionHeader (SELF_PROTECTED[PEER_LINK_OPEN]) ns3::dot11s::PeerLinkOpenStart (capability=0, rates=rates=[6mbs 9mbs 12mbs 18mbs 24mbs 36mbs 48mbs 54mbs], MeshId=(meshId=mesh), MeshConfiguration=(neighbors=0, Active Path Selection Protocol ID=1, Active Path Selection Metric ID=1, Congestion Control Mode ID=0, Synchronize protocol ID=1, Authentication protocol ID=0, Capabilities=9)) ns3::MeshInformationElementVector ((PeerMgmt=(Subtype=1, Length=3, LocalLinkId=1, PeerLinkId=0, ReasonCode=67))) 
t 0.0143545 /NodeList/0/DeviceList/1/$ns3::WifiNetDevice/Phy/State/Tx OfdmRate6Mbps ns3::WifiMacHeader (MGT_ACTION ToDS=0, FromDS=0, MoreFrag=0, Retry=1, PowerManagement=0, MoreData=0 Duration/ID=1972us, DA=00:00:00:00:00:02, SA=00:00:00:00:00:01, BSSID=00:00:00:00:00:01, FragNumber=0, SeqNumber=0) ns3::WifiActionHeader (SELF_PROTECTED[PEER_LINK_OPEN]) ns3::dot11s::PeerLinkOpenStart (capability=0, rates=rates=[6mbs 9mbs 12mbs 18mbs 24mbs 36mbs 48mbs 54mbs], MeshId=(meshId=mesh), MeshConfiguration=(neighbors=0, Active Path Selection Protocol ID=1, Active Path Selection Metric ID=1, Congestion Control Mode ID=0, Synchronize protocol ID=1, Authentication protocol ID=0, Capabilities=9)) ns3::MeshInformationElementVector ((PeerMgmt=(Subtype=1, Length=3, LocalLinkId=1, PeerLinkId=0, ReasonCode=67))) 
t 0.0143545 /NodeList/2/DeviceList/1/$ns3::WifiNetDevice/Phy/State/Tx OfdmRate6Mbps ns3::WifiMacHeader (MGT_ACTION ToDS=0, FromDS=0, MoreFrag=0, Retry=1, PowerManagement=0, MoreData=0 Duration/ID=1972us, DA=00:00:00:00:00:02, SA=00:00:00:00:00:03, BSSID=00:00:00:00:00:03, FragNumber=0, SeqNumber=0) ns3::WifiActionHeader (SELF_PROTECTED[PEER_LINK_OPEN]) ns3::dot11s::PeerLinkOpenStart (capability=0, rates=rates=[6mbs 9mbs 12mbs 18mbs 24mbs 36mbs 48mbs 54mbs], MeshId=(meshId=mesh), MeshConfiguration=(neighbors=0, Active Path Selection Protocol ID=1, Active Path Selection Metric ID=1, Congestion Control Mode ID=0, Synchronize protocol ID=1, Authentication protocol ID=0, Capabilities=9)) ns3::MeshInformationElementVector ((PeerMgmt=(Subtype=1, Length=3, LocalLinkId=1, PeerLinkId=0, ReasonCode=67))) 
r 0.0144357 OfdmRate6Mbps /NodeList/3/DeviceList/1/$ns3::WifiNetDevice/Phy/State/RxOk ns3::WifiMacHeader (MGT_ACTION ToDS=0, FromDS=0, MoreFrag=0, Retry=1, PowerManagement=0, MoreData=0 Duration/ID=1972us, DA=00:00:00:00:00:02, SA=00:00:00:00:00:05, BSSID=00:00:00:00:00:05, FragNumber=0, SeqNumber=0) ns3::WifiActionHeader (SELF_PROTECTED[PEER_LINK_OPEN]) ns3::dot11s::PeerLinkOpenStart (capability=0, rates=rates=[6mbs 9mbs 12mbs 18mbs 24mbs 36mbs 48mbs 54mbs], MeshId=(meshId=mesh), MeshConfiguration=(neighbors=0, Active Path Selection Protocol ID=1, Active Path Selection Metric ID=1, Congestion Control Mode ID=0, Synchronize protocol ID=1, Authentication protocol ID=0, Capabilities=9)) ns3::MeshInformationElementVector ((PeerMgmt=(Subtype=1, Length=3, LocalLinkId=1, PeerLinkId=0, ReasonCode=67))) 
r 0.0144357 OfdmRate6Mbps /NodeList/5/DeviceList/1/$ns3::WifiNetDevice/Phy/State/RxOk ns3::WifiMacHeader (MGT_ACTION ToDS=0, FromDS=0, MoreFrag=0, Retry=1, PowerManagement=0, MoreData=0 Duration/ID=1972us, DA=00:00:00:00:00:02, SA=00:00:00:00:00:05, BSSID=00:00:00:00:00:05, FragNumber=0, SeqNumber=0) ns3::WifiActionHeader (SELF_PROTECTED[PEER_LINK_OPEN]) ns3::dot11s::PeerLinkOpenStart (capability=0, rates=rates=[6mbs 9mbs 12mbs 18mbs 24mbs 36mbs 48mbs 54mbs], MeshId=(meshId=mesh), MeshConfiguration=(neighbors=0, Active Path Selection Protocol ID=1, Active Path Selection Metric ID=1, Congestion Control Mode ID=0, Synchronize protocol ID=1, Authentication protocol ID=0, Capabilities=9)) ns3::MeshInformationElementVector ((PeerMgmt=(Subtype=1, Length=3, LocalLinkId=1, PeerLinkId=0, ReasonCode=67))) 
t 0.0145775 /NodeList/4/DeviceList/1/$ns3::WifiNetDevice/Phy/State/Tx OfdmRate6Mbps ns3::WifiMacHeader (MGT_ACTION ToDS=0, FromDS=0, MoreFrag=0, Retry=1, PowerManagement=0, MoreData=0 Duration/ID=1972us, DA=00:00:00:00:00:02, SA=00:00:00:00:00:05, BSSID=00:00:00:00:00:05, FragNumber=0, SeqNumber=0) ns3::WifiActionHeader (SELF_PROTECTED[PEER_LINK_OPEN]) ns3::dot11s::PeerLinkOpenStart (capability=0, rates=rates=[6mbs 9mbs 12mbs 18mbs 24mbs 36mbs 48mbs 54mbs], MeshId=(meshId=mesh), MeshConfiguration=(neighbors=0, Active Path Selection Protocol ID=1, Active Path Selection Metric ID=1, Congestion Control Mode ID=0, Synchronize protocol ID=1, Authentication protocol ID=0, Capabilities=9)) ns3::MeshInformationElementVector ((PeerMgmt=(Subtype=1, Length=3, LocalLinkId=1, PeerLinkId=0, ReasonCode=67))) 
t 0.0145865 /NodeList/0/DeviceList/1/$ns3::WifiNetDevice/Phy/State/Tx OfdmRate6Mbps ns3::WifiMacHeader (MGT_ACTION ToDS=0, FromDS=0, MoreFrag=0, Retry=1, PowerManagement=0, MoreData=0 Duration/ID=1972us, DA=00:00:00:00:00:02, SA=00:00:00:00:00:01, BSSID=00:00:00:00:00:01, FragNumber=0, SeqNumber=0) ns3::WifiActionHeader (SELF_PROTECTED[PEER_LINK_OPEN]) ns3::dot11s::PeerLinkOpenStart (capability=0, rates=rates=[6mbs 9mbs 12mbs 18mbs 24mbs 36mbs 48mbs 54mbs], MeshId=(meshId=mesh), MeshConfiguration=(neighbors=0, Active Path Selection Protocol ID=1, Active Path Selection Metric ID=1, Congestion Control Mode ID=0, Synchronize protocol ID=1, Authentication protocol ID=0, Capabilities=9)) ns3::MeshInformationElementVector ((PeerMgmt=(Subtype=1, Length=3, LocalLinkId=1, PeerLinkId=0, ReasonCode=67))) 
t 0.0145865 /NodeList/2/DeviceList/1/$ns3::WifiNetDevice/Phy/State/Tx OfdmRate6Mbps ns3::WifiMacHeader (MGT_ACTION ToDS=0, FromDS=0, MoreFrag=0, Retry=1, PowerManagement=0, MoreData=0 Duration/ID=1972us, DA=00:00:00:00:00:02, SA=00:00:00:00:00:03, BSSID=00:00:00:00:00:03, FragNumber=0, SeqNumber=0) ns3::WifiActionHeader (SELF_PROTECTED[PEER_LINK_OPEN]) ns3::dot11s::PeerLinkOpenStart (capability=0, rates=rates=[6mbs 9mbs 12mbs 18mbs 24mbs 36mbs 48mbs 54mbs], MeshId=(meshId=mesh), MeshConfiguration=(neighbors=0, Active Path Selection Protocol ID=1, Active Path Selection Metric ID=1, Congestion Control Mode ID=0, Synchronize protocol ID=1, Authentication protocol ID=0, Capabilities=9)) ns3::MeshInformationElementVector ((PeerMgmt=(Subtype=1, Length=3, LocalLinkId=1, PeerLinkId=0, ReasonCode=67))) 
t 0.0147735 /NodeList/4/DeviceList/1/$ns3::WifiNetDevice/Phy/State/Tx OfdmRate6Mbps ns3::WifiMacHeader (MGT_ACTION ToDS=0, FromDS=0, MoreFrag=0, Retry=1, PowerManagement=0, MoreData=0 Duration/ID=1972us, DA=00:00:00:00:00:02, SA=00:00:00:00:00:05, BSSID=00:00:00:00:00:05, FragNumber=0, SeqNumber=0) ns3::WifiActionHeader (SELF_PROTECTED[PEER_LINK_OPEN]) ns3::dot11s::PeerLinkOpenStart (capability=0, rates=rates=[6mbs 9mbs 12mbs 18mbs 24mbs 36mbs 48mbs 54mbs], MeshId=(meshId=mesh), MeshConfiguration=(neighbors=0, Active Path Selection Protocol ID=1, Active Path Selection Metric ID=1, Congestion Control Mode ID=0, Synchronize protocol ID=1, Authentication protocol ID=0, Capabilities=9)) ns3::MeshInformationElementVector ((PeerMgmt=(Subtype=1, Length=3, LocalLinkId=1, PeerLinkId=0, ReasonCode=67))) 
t 0.0148185 /NodeList/0/DeviceList/1/$ns3::WifiNetDevice/Phy/State/Tx OfdmRate6Mbps ns3::WifiMacHeader (MGT_ACTION ToDS=0, FromDS=0, MoreFrag=0, Retry=1, PowerManagement=0, MoreData=0 Duration/ID=1972us, DA=00:00:00:00:00:02, SA=00:00:00:00:00:01, BSSID=00:00:00:00:00:01, FragNumber=0, SeqNumber=0) ns3::WifiActionHeader (SELF_PROTECTED[PEER_LINK_OPEN]) ns3::dot11s::PeerLinkOpenStart (capability=0, rates=rates=[6mbs 9mbs 12mbs 18mbs 24mbs 36mbs 48mbs 54mbs], MeshId=(meshId=mesh), MeshConfiguration=(neighbors=0, Active Path Selection Protocol ID=1, Active Path Selection Metric ID=1, Congestion Control Mode ID=0, Synchronize protocol ID=1, Authentication protocol ID=0, Capabilities=9)) ns3::MeshInformationElementVector ((PeerMgmt=(Subtype=1, Length=3, LocalLinkId=1, PeerLinkId=0, ReasonCode=67))) 
t 0.0148185 /NodeList/2/DeviceList/1/$ns3::WifiNetDevice/Phy/State/Tx OfdmRate6Mbps ns3::WifiMacHeader (MGT_ACTION ToDS=0, FromDS=0, MoreFrag=0, Retry=1, PowerManagement=0, MoreData=0 Duration/ID=1972us, DA=00:00:00:00:00:02, SA=00:00:00:00:00:03, BSSID=00:00:00:00:00:03, FragNumber=0, SeqNumber=0) ns3::WifiActionHeader (SELF_PROTECTED[PEER_LINK_OPEN]) ns3::dot11s::PeerLinkOpenStart (capability=0, rates=rates=[6mbs 9mbs 12mbs 18mbs 24mbs 36mbs 48mbs 54mbs], MeshId=(meshId=mesh), MeshConfiguration=(neighbors=0, Active Path Selection Protocol ID=1, Active Path Selection Metric ID=1, Congestion Control Mode ID=0, Synchronize protocol ID=1, Authentication protocol ID=0, Capabilities=9)) ns3::MeshInformationElementVector ((PeerMgmt=(Subtype=1, Length=3, LocalLinkId=1, PeerLinkId=0, ReasonCode=67))) 
r 0.0148817 OfdmRate6Mbps /NodeList/3/DeviceList/1/$ns3::WifiNetDevice/Phy/State/RxOk ns3::WifiMacHeader (MGT_ACTION ToDS=0, FromDS=0, MoreFrag=0, Retry=1, PowerManagement=0, MoreData=0 Duration/ID=1972us, DA=00:00:00:00:00:02, SA=00:00:00:00:00:05, BSSID=00:00:00:00:00:05, FragNumber=0, SeqNumber=0) ns3::WifiActionHeader (SELF_PROTECTED[PEER_LINK_OPEN]) ns3::dot11s::PeerLinkOpenStart (capability=0, rates=rates=[6mbs 9mbs 12mbs 18mbs 24mbs 36mbs 48mbs 54mbs], MeshId=(meshId=mesh), MeshConfiguration=(neighbors=0, Active Path Selection Protocol ID=1, Active Path Selection Metric ID=1, Congestion Control Mode ID=0, Synchronize protocol ID=1, Authentication protocol ID=0, Capabilities=9)) ns3::MeshInformationElementVector ((PeerMgmt=(Subtype=1, Length=3, LocalLinkId=1, PeerLinkId=0, ReasonCode=67))) 
r 0.0148817 OfdmRate6Mbps /NodeList/5/DeviceList/1/$ns3::WifiNetDevice/Phy/State/RxOk ns3::WifiMacHeader (MGT_ACTION ToDS=0, FromDS=0, MoreFrag=0, Retry=1, PowerManagement=0, MoreData=0 Duration/ID=1972us, DA=00:00:00:00:00:02, SA=00:00:00:00:00:05, BSSID=00:00:00:00:00:05, FragNumber=0, SeqNumber=0) ns3::WifiActionHeader (SELF_PROTECTED[PEER_LINK_OPEN]) ns3::dot11s::PeerLinkOpenStart (capability=0, rates=rates=[6mbs 9mbs 12mbs 18mbs 24mbs 36mbs 48mbs 54mbs], MeshId=(meshId=mesh), MeshConfiguration=(neighbors=0, Active Path Selection Protocol ID=1, Active Path Selection Metric ID=1, Congestion Control Mode ID=0, Synchronize protocol ID=1, Authentication protocol ID=0, Capabilities=9)) ns3::MeshInformationElementVector ((PeerMgmt=(Subtype=1, Length=3, LocalLinkId=1, PeerLinkId=0, ReasonCode=67))) 
t 0.0150055 /NodeList/4/DeviceList/1/$ns3::WifiNetDevice/Phy/State/Tx OfdmRate6Mbps ns3::WifiMacHeader (MGT_ACTION ToDS=0, FromDS=0, MoreFrag=0, Retry=1, PowerManagement=0, MoreData=0 Duration/ID=1972us, DA=00:00:00:00:00:02, SA=00:00:00:00:00:05, BSSID=00:00:00:00:00:05, FragNumber=0, SeqNumber=0) ns3::WifiActionHeader (SELF_PROTECTED[PEER_LINK_OPEN]) ns3::dot11s::PeerLinkOpenStart (capability=0, rates=rates=[6mbs 9mbs 12mbs 18mbs 24mbs 36mbs 48mbs 54mbs], MeshId=(meshId=mesh), MeshConfiguration=(neighbors=0, Active Path Selection Protocol ID=1, Active Path Selection Metric ID=1, Congestion Control Mode ID=0, Synchronize protocol ID=1, Authentication protocol ID=0, Capabilities=9)) ns3::MeshInformationElementVector ((PeerMgmt=(Subtype=1, Length=3, LocalLinkId=1, PeerLinkId=0, ReasonCode=67))) 
t 0.0150055 /NodeList/0/DeviceList/1/$ns3::WifiNetDevice/Phy/State/Tx OfdmRate6Mbps ns3::WifiMacHeader (MGT_ACTION ToDS=0, FromDS=0, MoreFrag=0, Retry=1, PowerManagement=0, MoreData=0 Duration/ID=1972us, DA=00:00:00:00:00:02, SA=00:00:00:00:00:01, BSSID=00:00:00:00:00:01, FragNumber=0, SeqNumber=0) ns3::WifiActionHeader (SELF_PROTECTED[PEER_LINK_OPEN]) ns3::dot11s::PeerLinkOpenStart (capability=0, rates=rates=[6mbs 9mbs 12mbs 18mbs 24mbs 36mbs 48mbs 54mbs], MeshId=(meshId=mesh), MeshConfiguration=(neighbors=0, Active Path Selection Protocol ID=1, Active Path Selection Metric ID=1, Congestion Control Mode ID=0, Synchronize protocol ID=1, Authentication protocol ID=0, Capabilities=9)) ns3::MeshInformationElementVector ((PeerMgmt=(Subtype=1, Length=3, LocalLinkId=1, PeerLinkId=0, ReasonCode=67))) 
t 0.0150235 /NodeList/2/DeviceList/1/$ns3::WifiNetDevice/Phy/State/Tx OfdmRate6Mbps ns3::WifiMacHeader (MGT_ACTION ToDS=0, FromDS=0, MoreFrag=0, Retry=1, PowerManagement=0, MoreData=0 Duration/ID=1972us, DA=00:00:00:00:00:02, SA=00:00:00:00:00:03, BSSID=00:00:00:00:00:03, FragNumber=0, SeqNumber=0) ns3::WifiActionHeader (SELF_PROTECTED[PEER_LINK_OPEN]) ns3::dot11s::PeerLinkOpenStart (capability=0, rates=rates=[6mbs 9mbs 12mbs 18mbs 24mbs 36mbs 48mbs 54mbs], MeshId=(meshId=mesh), MeshConfiguration=(neighbors=0, Active Path Selection Protocol ID=1, Active Path Selection Metric ID=1, Congestion Control Mode ID=0, Synchronize protocol ID=1, Authentication protocol ID=0, Capabilities=9)) ns3::MeshInformationElementVector ((PeerMgmt=(Subtype=1, Length=3, LocalLinkId=1, PeerLinkId=0, ReasonCode=67))) 
t 0.0152195 /NodeList/4/DeviceList/1/$ns3::WifiNetDevice/Phy/State/Tx OfdmRate6Mbps ns3::WifiMacHeader (MGT_ACTION ToDS=0, FromDS=0, MoreFrag=0, Retry=1, PowerManagement=0, MoreData=0 Duration/ID=1972us, DA=00:00:00:00:00:02, SA=00:00:00:00:00:05, BSSID=00:00:00:00:00:05, FragNumber=0, SeqNumber=0) ns3::WifiActionHeader (SELF_PROTECTED[PEER_LINK_OPEN]) ns3::dot11s::PeerLinkOpenStart (capability=0, rates=rates=[6mbs 9mbs 12mbs 18mbs 24mbs 36mbs 48mbs 54mbs], MeshId=(meshId=mesh), MeshConfiguration=(neighbors=0, Active Path Selection Protocol ID=1, Active Path Selection Metric ID=1, Congestion Control Mode ID=0, Synchronize protocol ID=1, Authentication protocol ID=0, Capabilities=9)) ns3::MeshInformationElementVector ((PeerMgmt=(Subtype=1, Length=3, LocalLinkId=1, PeerLinkId=0, ReasonCode=67))) 
t 0.0152555 /NodeList/0/DeviceList/1/$ns3::WifiNetDevice/Phy/State/Tx OfdmRate6Mbps ns3::WifiMacHeader (MGT_ACTION ToDS=0, FromDS=0, MoreFrag=0, Retry=1, PowerManagement=0, MoreData=0 Duration/ID=1972us, DA=00:00:00:00:00:02, SA=00:00:00:00:00:01, BSSID=00:00:00:00:00:01, FragNumber=0, SeqNumber=0) ns3::WifiActionHeader (SELF_PROTECTED[PEER_LINK_OPEN]) ns3::dot11s::PeerLinkOpenStart (capability=0, rates=rates=[6mbs 9mbs 12mbs 18mbs 24mbs 36mbs 48mbs 54mbs], MeshId=(meshId=mesh), MeshConfiguration=(neighbors=0, Active Path Selection Protocol ID=1, Active Path Selection Metric ID=1, Congestion Control Mode ID=0, Synchronize protocol ID=1, Authentication protocol ID=0, Capabilities=9)) ns3::MeshInformationElementVector ((PeerMgmt=(Subtype=1, Length=3, LocalLinkId=1, PeerLinkId=0, ReasonCode=67))) 
t 0.0152645 /NodeList/2/DeviceList/1/$ns3::WifiNetDevice/Phy/State/Tx OfdmRate6Mbps ns3::WifiMacHeader (MGT_ACTION ToDS=0, FromDS=0, MoreFrag=0, Retry=1, PowerManagement=0, MoreData=0 Duration/ID=1972us, DA=00:00:00:00:00:02, SA=00:00:00:00:00:03, BSSID=00:00:00:00:00:03, FragNumber=0, SeqNumber=0) ns3::WifiActionHeader (SELF_PROTECTED[PEER_LINK_OPEN]) ns3::dot11s::PeerLinkOpenStart (capability=0, rates=rates=[6mbs 9mbs 12mbs 18mbs 24mbs 36mbs 48mbs 54mbs], MeshId=(meshId=mesh), MeshConfiguration=(neighbors=0, Active Path Selection Protocol ID=1, Active Path Selection Metric ID=1, Congestion Control Mode ID=0, Synchronize protocol ID=1, Authentication protocol ID=0, Capabilities=9)) ns3::MeshInformationElementVector ((PeerMgmt=(Subtype=1, Length=3, LocalLinkId=1, PeerLinkId=0, ReasonCode=67))) 
r 0.0153277 OfdmRate6Mbps /NodeList/5/DeviceList/1/$ns3::WifiNetDevice/Phy/State/RxOk ns3::WifiMacHeader (MGT_ACTION ToDS=0, FromDS=0, MoreFrag=0, Retry=1, PowerManagement=0, MoreData=0 Duration/ID=1972us, DA=00:00:00:00:00:02, SA=00:00:00:00:00:05, BSSID=00:00:00:00:00:05, FragNumber=0, SeqNumber=0) ns3::WifiActionHeader (SELF_PROTECTED[PEER_LINK_OPEN]) ns3::dot11s::PeerLinkOpenStart (capability=0, rates=rates=[6mbs 9mbs 12mbs 18mbs 24mbs 36mbs 48mbs 54mbs], MeshId=(meshId=mesh), MeshConfiguration=(neighbors=0, Active Path Selection Protocol ID=1, Active Path Selection Metric ID=1, Congestion Control Mode ID=0, Synchronize protocol ID=1, Authentication protocol ID=0, Capabilities=9)) ns3::MeshInformationElementVector ((PeerMgmt=(Subtype=1, Length=3, LocalLinkId=1, PeerLinkId=0, ReasonCode=67))) 
t 0.0203756 /NodeList/5/DeviceList/1/$ns3::WifiNetDevice/Phy/State/Tx OfdmRate6Mbps ns3::WifiMacHeader (MGT_BEACON ToDS=0, FromDS=0, MoreFrag=0, Retry=0, PowerManagement=0, MoreData=0 Duration/ID=0us, DA=ff:ff:ff:ff:ff:ff, SA=00:00:00:00:00:06, BSSID=00:00:00:00:00:06, FragNumber=0, SeqNumber=0) ns3::MgtProbeResponseHeader (ssid= , rates=[6mbs 9mbs 12mbs 18mbs 24mbs 36mbs 48mbs 54mbs] , ) ns3::MeshInformationElementVector ((BeaconTiming=(Number of units=0))(MeshId=(meshId=mesh))) 
r 0.0204797 OfdmRate6Mbps /NodeList/2/DeviceList/1/$ns3::WifiNetDevice/Phy/State/RxOk ns3::WifiMacHeader (MGT_BEACON ToDS=0, FromDS=0, MoreFrag=0, Retry=0, PowerManagement=0, MoreData=0 Duration/ID=0us, DA=ff:ff:ff:ff:ff:ff, SA=00:00:00:00:00:06, BSSID=00:00:00:00:00:06, FragNumber=0, SeqNumber=0) ns3::MgtProbeResponseHeader (ssid= , rates=[6mbs 9mbs 12mbs 18mbs 24mbs 36mbs 48mbs 54mbs] , ) ns3::MeshInformationElementVector ((BeaconTiming=(Number of units=0))(MeshId=(meshId=mesh))) 
r 0.0204797 OfdmRate6Mbps /NodeList/4/DeviceList/1/$ns3::WifiNetDevice/Phy/State/RxOk ns3::WifiMacHeader (MGT_BEACON ToDS=0, FromDS=0, MoreFrag=0, Retry=0, PowerManagement=0, MoreData=0 Duration/ID=0us, DA=ff:ff:ff:ff:ff:ff, SA=00:00:00:00:00:06, BSSID=00:00:00:00:00:06, FragNumber=0, SeqNumber=0) ns3::MgtProbeResponseHeader (ssid= , rates=[6mbs 9mbs 12mbs 18mbs 24mbs 36mbs 48mbs 54mbs] , ) ns3::MeshInformationElementVector ((BeaconTiming=(Number of units=0))(MeshId=(meshId=mesh))) 
t 0.0205137 /NodeList/2/DeviceList/1/$ns3::WifiNetDevice/Phy/State/Tx OfdmRate6Mbps ns3::WifiMacHeader (MGT_ACTION ToDS=0, FromDS=0, MoreFrag=0, Retry=0, PowerManagement=0, MoreData=0 Duration/ID=1972us, DA=00:00:00:00:00:06, SA=00:00:00:00:00:03, BSSID=00:00:00:00:00:03, FragNumber=0, SeqNumber=1) ns3::WifiActionHeader (SELF_PROTECTED[PEER_LINK_OPEN]) ns3::dot11s::PeerLinkOpenStart (capability=0, rates=rates=[6mbs 9mbs 12mbs 18mbs 24mbs 36mbs 48mbs 54mbs], MeshId=(meshId=mesh), MeshConfiguration=(neighbors=0, Active Path Selection Protocol ID=1, Active Path Selection Metric ID=1, Congestion Control Mode ID=0, Synchronize protocol ID=1, Authentication protocol ID=0, Capabilities=9)) ns3::MeshInformationElementVector ((PeerMgmt=(Subtype=1, Length=3, LocalLinkId=2, PeerLinkId=0, ReasonCode=67))) 
t 0.0205137 /NodeList/4/DeviceList/1/$ns3::WifiNetDevice/Phy/State/Tx OfdmRate6Mbps ns3::WifiMacHeader (MGT_ACTION ToDS=0, FromDS=0, MoreFrag=0, Retry=0, PowerManagement=0, MoreData=0 Duration/ID=1972us, DA=00:00:00:00:00:06, SA=00:00:00:00:00:05, BSSID=00:00:00:00:00:05, FragNumber=0, SeqNumber=1) ns3::WifiActionHeader (SELF_PROTECTED[PEER_LINK_OPEN]) ns3::dot11s::PeerLinkOpenStart (capability=0, rates=rates=[6mbs 9mbs 12mbs 18mbs 24mbs 36mbs 48mbs 54mbs], MeshId=(meshId=mesh), MeshConfiguration=(neighbors=0, Active Path Selection Protocol ID=1, Active Path Selection Metric ID=1, Congestion Control Mode ID=0, Synchronize protocol ID=1, Authentication protocol ID=0, Capabilities=9)) ns3::MeshInformationElementVector ((PeerMgmt=(Subtype=1, Length=3, LocalLinkId=2, PeerLinkId=0, ReasonCode=67))) 
r 0.0206219 OfdmRate6Mbps /NodeList/3/DeviceList/1/$ns3::WifiNetDevice/Phy/State/RxOk ns3::WifiMacHeader (MGT_ACTION ToDS=0, FromDS=0, MoreFrag=0, Retry=0, PowerManagement=0, MoreData=0 Duration/ID=1972us, DA=00:00:00:00:00:06, SA=00:00:00:00:00:05, BSSID=00:00:00:00:00:05, FragNumber=0, SeqNumber=1) ns3::WifiActionHeader (SELF_PROTECTED[PEER_LINK_OPEN]) ns3::dot11s::PeerLinkOpenStart (capability=0, rates=rates=[6mbs 9mbs 12mbs 18mbs 24mbs 36mbs 48mbs 54mbs], MeshId=(meshId=mesh), MeshConfiguration=(neighbors=0, Active Path Selection Protocol ID=1, Active Path Selection Metric ID=1, Congestion Control Mode ID=0, Synchronize protocol ID=1, Authentication protocol ID=0, Capabilities=9)) ns3::MeshInformationElementVector ((PeerMgmt=(Subtype=1, Length=3, LocalLinkId=2, PeerLinkId=0, ReasonCode=67))) 
t 0.0207097 /NodeList/2/DeviceList/1/$ns3::WifiNetDevice/Phy/State/Tx OfdmRate6Mbps ns3::WifiMacHeader (MGT_ACTION ToDS=0, FromDS=0, MoreFrag=0, Retry=1, PowerManagement=0, MoreData=0 Duration/ID=1972us, DA=00:00:00:00:00:06, SA=00:00:00:00:00:03, BSSID=00:00:00:00:00:03, FragNumber=0, SeqNumber=1) ns3::WifiActionHeader (SELF_PROTECTED[PEER_LINK_OPEN]) ns3::dot11s::PeerLinkOpenStart (capability=0, rates=rates=[6mbs 9mbs 12mbs 18mbs 24mbs 36mbs 48mbs 54mbs], MeshId=(meshId=mesh), MeshConfiguration=(neighbors=0, Active Path Selection Protocol ID=1, Active Path Selection Metric ID=1, Congestion Control Mode ID=0, Synchronize protocol ID=1, Authentication protocol ID=0, Capabilities=9)) ns3::MeshInformationElementVector ((PeerMgmt=(Subtype=1, Length=3, LocalLinkId=2, PeerLinkId=0, ReasonCode=67))) 